<?xml version="1.0" encoding="UTF-8"?>

<!-- generated on za 11 okt 2014 13:43:20 CEST by SUMO gui Version 0.21.0
<?xml version="1.0" encoding="UTF-8"?>

<configuration xmlns:xsi="http://www.w3.org/2001/XMLSchema-instance" xsi:noNamespaceSchemaLocation="http://sumo-sim.org/xsd/sumo-gui.exeConfiguration.xsd">

    <input>
        <net-file value="/home/barend/Scriptie/SumoSensors/hello.net.xml"/>
        <route-files value="/home/barend/Scriptie/SumoSensors/hello.rou.xml"/>
        <additional-files value="/home/barend/Scriptie/SumoSensors/sensors.xml"/>
    </input>

    <traci_server>
        <remote-port value="8813"/>
    </traci_server>

</configuration>
-->

<detector xmlns:xsi="http://www.w3.org/2001/XMLSchema-instance" xsi:noNamespaceSchemaLocation="http://sumo-sim.org/xsd/det_e2_file.xsd">
</detector>
