<?xml version="1.0" encoding="UTF-8"?>

<!-- generated on vr 10 okt 2014 12:42:44 CEST by SUMO gui Version 0.21.0
<?xml version="1.0" encoding="UTF-8"?>

<configuration xmlns:xsi="http://www.w3.org/2001/XMLSchema-instance" xsi:noNamespaceSchemaLocation="http://sumo-sim.org/xsd/sumo-gui.exeConfiguration.xsd">

    <input>
        <net-file value="/home/barend/Scriptie/SumoSensors/hello.net.xml"/>
        <route-files value="/home/barend/Scriptie/SumoSensors/hello.rou.xml"/>
        <additional-files value="/home/barend/Scriptie/SumoSensors/sensors.xml"/>
    </input>

    <traci_server>
        <remote-port value="8813"/>
    </traci_server>

</configuration>
-->

<detector xmlns:xsi="http://www.w3.org/2001/XMLSchema-instance" xsi:noNamespaceSchemaLocation="http://sumo-sim.org/xsd/det_e2_file.xsd">
   <interval begin="0.00" end="25.00" id="N42lane0," nSamples="4" meanSpeed="5.36" meanOccupancy="3.05" maxOccupancy="50.00" meanMaxJamLengthInVehicles="0.00" meanMaxJamLengthInMeters="0.00" maxJamLengthInVehicles="0" maxJamLengthInMeters="0.00" jamLengthInVehiclesSum="0" jamLengthInMetersSum="0.00" meanHaltingDuration="1.00" maxHaltingDuration="1.00" haltingDurationSum="1.00" meanIntervalHaltingDuration="1.00" maxIntervalHaltingDuration="1.00" intervalHaltingDurationSum="1.00" startedHalts="1.00" meanVehicleNumber="0.16" maxVehicleNumber="1" />
   <interval begin="25.00" end="50.00" id="N42lane0," nSamples="70" meanSpeed="0.24" meanOccupancy="57.55" maxOccupancy="59.98" meanMaxJamLengthInVehicles="2.60" meanMaxJamLengthInMeters="18.20" maxJamLengthInVehicles="3" maxJamLengthInMeters="21.00" jamLengthInVehiclesSum="65" jamLengthInMetersSum="455.04" meanHaltingDuration="22.67" maxHaltingDuration="26.00" haltingDurationSum="68.00" meanIntervalHaltingDuration="22.33" maxIntervalHaltingDuration="25.00" intervalHaltingDurationSum="67.00" startedHalts="2.00" meanVehicleNumber="2.80" maxVehicleNumber="3" />
   <interval begin="50.00" end="75.00" id="N42lane0," nSamples="75" meanSpeed="0.00" meanOccupancy="59.98" maxOccupancy="59.98" meanMaxJamLengthInVehicles="3.00" meanMaxJamLengthInMeters="21.00" maxJamLengthInVehicles="3" maxJamLengthInMeters="21.00" jamLengthInVehiclesSum="75" jamLengthInMetersSum="525.05" meanHaltingDuration="47.67" maxHaltingDuration="51.00" haltingDurationSum="143.00" meanIntervalHaltingDuration="25.00" maxIntervalHaltingDuration="25.00" intervalHaltingDurationSum="75.00" startedHalts="0.00" meanVehicleNumber="3.00" maxVehicleNumber="3" />
   <interval begin="75.00" end="100.00" id="N42lane0," nSamples="75" meanSpeed="0.00" meanOccupancy="59.98" maxOccupancy="59.98" meanMaxJamLengthInVehicles="3.00" meanMaxJamLengthInMeters="21.00" maxJamLengthInVehicles="3" maxJamLengthInMeters="21.00" jamLengthInVehiclesSum="75" jamLengthInMetersSum="525.05" meanHaltingDuration="72.67" maxHaltingDuration="76.00" haltingDurationSum="218.00" meanIntervalHaltingDuration="25.00" maxIntervalHaltingDuration="25.00" intervalHaltingDurationSum="75.00" startedHalts="0.00" meanVehicleNumber="3.00" maxVehicleNumber="3" />
   <interval begin="100.00" end="125.00" id="N42lane0," nSamples="75" meanSpeed="0.00" meanOccupancy="59.98" maxOccupancy="59.98" meanMaxJamLengthInVehicles="3.00" meanMaxJamLengthInMeters="21.00" maxJamLengthInVehicles="3" maxJamLengthInMeters="21.00" jamLengthInVehiclesSum="75" jamLengthInMetersSum="525.05" meanHaltingDuration="97.67" maxHaltingDuration="101.00" haltingDurationSum="293.00" meanIntervalHaltingDuration="25.00" maxIntervalHaltingDuration="25.00" intervalHaltingDurationSum="75.00" startedHalts="0.00" meanVehicleNumber="3.00" maxVehicleNumber="3" />
   <interval begin="125.00" end="150.00" id="N42lane0," nSamples="75" meanSpeed="0.00" meanOccupancy="59.98" maxOccupancy="59.98" meanMaxJamLengthInVehicles="3.00" meanMaxJamLengthInMeters="21.00" maxJamLengthInVehicles="3" maxJamLengthInMeters="21.00" jamLengthInVehiclesSum="75" jamLengthInMetersSum="525.05" meanHaltingDuration="122.67" maxHaltingDuration="126.00" haltingDurationSum="368.00" meanIntervalHaltingDuration="25.00" maxIntervalHaltingDuration="25.00" intervalHaltingDurationSum="75.00" startedHalts="0.00" meanVehicleNumber="3.00" maxVehicleNumber="3" />
   <interval begin="150.00" end="175.00" id="N42lane0," nSamples="75" meanSpeed="0.00" meanOccupancy="59.98" maxOccupancy="59.98" meanMaxJamLengthInVehicles="3.00" meanMaxJamLengthInMeters="21.00" maxJamLengthInVehicles="3" maxJamLengthInMeters="21.00" jamLengthInVehiclesSum="75" jamLengthInMetersSum="525.05" meanHaltingDuration="147.67" maxHaltingDuration="151.00" haltingDurationSum="443.00" meanIntervalHaltingDuration="25.00" maxIntervalHaltingDuration="25.00" intervalHaltingDurationSum="75.00" startedHalts="0.00" meanVehicleNumber="3.00" maxVehicleNumber="3" />
   <interval begin="175.00" end="200.00" id="N42lane0," nSamples="75" meanSpeed="0.00" meanOccupancy="59.98" maxOccupancy="59.98" meanMaxJamLengthInVehicles="3.00" meanMaxJamLengthInMeters="21.00" maxJamLengthInVehicles="3" maxJamLengthInMeters="21.00" jamLengthInVehiclesSum="75" jamLengthInMetersSum="525.05" meanHaltingDuration="172.67" maxHaltingDuration="176.00" haltingDurationSum="518.00" meanIntervalHaltingDuration="25.00" maxIntervalHaltingDuration="25.00" intervalHaltingDurationSum="75.00" startedHalts="0.00" meanVehicleNumber="3.00" maxVehicleNumber="3" />
   <interval begin="200.00" end="225.00" id="N42lane0," nSamples="75" meanSpeed="0.00" meanOccupancy="59.98" maxOccupancy="59.98" meanMaxJamLengthInVehicles="3.00" meanMaxJamLengthInMeters="21.00" maxJamLengthInVehicles="3" maxJamLengthInMeters="21.00" jamLengthInVehiclesSum="75" jamLengthInMetersSum="525.05" meanHaltingDuration="197.67" maxHaltingDuration="201.00" haltingDurationSum="593.00" meanIntervalHaltingDuration="25.00" maxIntervalHaltingDuration="25.00" intervalHaltingDurationSum="75.00" startedHalts="0.00" meanVehicleNumber="3.00" maxVehicleNumber="3" />
   <interval begin="225.00" end="250.00" id="N42lane0," nSamples="75" meanSpeed="0.00" meanOccupancy="59.98" maxOccupancy="59.98" meanMaxJamLengthInVehicles="3.00" meanMaxJamLengthInMeters="21.00" maxJamLengthInVehicles="3" maxJamLengthInMeters="21.00" jamLengthInVehiclesSum="75" jamLengthInMetersSum="525.05" meanHaltingDuration="222.67" maxHaltingDuration="226.00" haltingDurationSum="668.00" meanIntervalHaltingDuration="25.00" maxIntervalHaltingDuration="25.00" intervalHaltingDurationSum="75.00" startedHalts="0.00" meanVehicleNumber="3.00" maxVehicleNumber="3" />
   <interval begin="250.00" end="275.00" id="N42lane0," nSamples="75" meanSpeed="0.00" meanOccupancy="59.98" maxOccupancy="59.98" meanMaxJamLengthInVehicles="3.00" meanMaxJamLengthInMeters="21.00" maxJamLengthInVehicles="3" maxJamLengthInMeters="21.00" jamLengthInVehiclesSum="75" jamLengthInMetersSum="525.05" meanHaltingDuration="247.67" maxHaltingDuration="251.00" haltingDurationSum="743.00" meanIntervalHaltingDuration="25.00" maxIntervalHaltingDuration="25.00" intervalHaltingDurationSum="75.00" startedHalts="0.00" meanVehicleNumber="3.00" maxVehicleNumber="3" />
   <interval begin="275.00" end="300.00" id="N42lane0," nSamples="75" meanSpeed="0.00" meanOccupancy="59.98" maxOccupancy="59.98" meanMaxJamLengthInVehicles="3.00" meanMaxJamLengthInMeters="21.00" maxJamLengthInVehicles="3" maxJamLengthInMeters="21.00" jamLengthInVehiclesSum="75" jamLengthInMetersSum="525.05" meanHaltingDuration="272.67" maxHaltingDuration="276.00" haltingDurationSum="818.00" meanIntervalHaltingDuration="25.00" maxIntervalHaltingDuration="25.00" intervalHaltingDurationSum="75.00" startedHalts="0.00" meanVehicleNumber="3.00" maxVehicleNumber="3" />
   <interval begin="300.00" end="325.00" id="N42lane0," nSamples="74" meanSpeed="0.00" meanOccupancy="59.92" maxOccupancy="59.98" meanMaxJamLengthInVehicles="2.96" meanMaxJamLengthInMeters="20.72" maxJamLengthInVehicles="3" maxJamLengthInMeters="21.00" jamLengthInVehiclesSum="74" jamLengthInMetersSum="518.05" meanHaltingDuration="296.00" maxHaltingDuration="298.00" haltingDurationSum="592.00" meanIntervalHaltingDuration="25.00" maxIntervalHaltingDuration="25.00" intervalHaltingDurationSum="50.00" startedHalts="0.00" meanVehicleNumber="2.96" maxVehicleNumber="3" />
   <interval begin="325.00" end="350.00" id="N42lane0," nSamples="70" meanSpeed="0.21" meanOccupancy="58.85" maxOccupancy="59.99" meanMaxJamLengthInVehicles="2.52" meanMaxJamLengthInMeters="17.68" maxJamLengthInVehicles="3" maxJamLengthInMeters="21.00" jamLengthInVehiclesSum="63" jamLengthInMetersSum="442.04" meanHaltingDuration="131.60" maxHaltingDuration="299.00" haltingDurationSum="658.00" meanIntervalHaltingDuration="13.20" maxIntervalHaltingDuration="22.00" intervalHaltingDurationSum="66.00" startedHalts="3.00" meanVehicleNumber="2.80" maxVehicleNumber="3" />
   <interval begin="350.00" end="375.00" id="N42lane0," nSamples="75" meanSpeed="0.00" meanOccupancy="59.98" maxOccupancy="59.98" meanMaxJamLengthInVehicles="3.00" meanMaxJamLengthInMeters="21.00" maxJamLengthInVehicles="3" maxJamLengthInMeters="21.00" jamLengthInVehiclesSum="75" jamLengthInMetersSum="525.05" meanHaltingDuration="46.00" maxHaltingDuration="47.00" haltingDurationSum="138.00" meanIntervalHaltingDuration="25.00" maxIntervalHaltingDuration="25.00" intervalHaltingDurationSum="75.00" startedHalts="0.00" meanVehicleNumber="3.00" maxVehicleNumber="3" />
   <interval begin="375.00" end="400.00" id="N42lane0," nSamples="75" meanSpeed="0.00" meanOccupancy="59.98" maxOccupancy="59.98" meanMaxJamLengthInVehicles="3.00" meanMaxJamLengthInMeters="21.00" maxJamLengthInVehicles="3" maxJamLengthInMeters="21.00" jamLengthInVehiclesSum="75" jamLengthInMetersSum="525.05" meanHaltingDuration="71.00" maxHaltingDuration="72.00" haltingDurationSum="213.00" meanIntervalHaltingDuration="25.00" maxIntervalHaltingDuration="25.00" intervalHaltingDurationSum="75.00" startedHalts="0.00" meanVehicleNumber="3.00" maxVehicleNumber="3" />
   <interval begin="400.00" end="425.00" id="N42lane0," nSamples="75" meanSpeed="0.00" meanOccupancy="59.98" maxOccupancy="59.98" meanMaxJamLengthInVehicles="3.00" meanMaxJamLengthInMeters="21.00" maxJamLengthInVehicles="3" maxJamLengthInMeters="21.00" jamLengthInVehiclesSum="75" jamLengthInMetersSum="525.05" meanHaltingDuration="96.00" maxHaltingDuration="97.00" haltingDurationSum="288.00" meanIntervalHaltingDuration="25.00" maxIntervalHaltingDuration="25.00" intervalHaltingDurationSum="75.00" startedHalts="0.00" meanVehicleNumber="3.00" maxVehicleNumber="3" />
   <interval begin="425.00" end="450.00" id="N42lane0," nSamples="75" meanSpeed="0.00" meanOccupancy="59.98" maxOccupancy="59.98" meanMaxJamLengthInVehicles="3.00" meanMaxJamLengthInMeters="21.00" maxJamLengthInVehicles="3" maxJamLengthInMeters="21.00" jamLengthInVehiclesSum="75" jamLengthInMetersSum="525.05" meanHaltingDuration="121.00" maxHaltingDuration="122.00" haltingDurationSum="363.00" meanIntervalHaltingDuration="25.00" maxIntervalHaltingDuration="25.00" intervalHaltingDurationSum="75.00" startedHalts="0.00" meanVehicleNumber="3.00" maxVehicleNumber="3" />
   <interval begin="450.00" end="475.00" id="N42lane0," nSamples="75" meanSpeed="0.00" meanOccupancy="59.98" maxOccupancy="59.98" meanMaxJamLengthInVehicles="3.00" meanMaxJamLengthInMeters="21.00" maxJamLengthInVehicles="3" maxJamLengthInMeters="21.00" jamLengthInVehiclesSum="75" jamLengthInMetersSum="525.05" meanHaltingDuration="146.00" maxHaltingDuration="147.00" haltingDurationSum="438.00" meanIntervalHaltingDuration="25.00" maxIntervalHaltingDuration="25.00" intervalHaltingDurationSum="75.00" startedHalts="0.00" meanVehicleNumber="3.00" maxVehicleNumber="3" />
   <interval begin="475.00" end="500.00" id="N42lane0," nSamples="75" meanSpeed="0.00" meanOccupancy="59.98" maxOccupancy="59.98" meanMaxJamLengthInVehicles="3.00" meanMaxJamLengthInMeters="21.00" maxJamLengthInVehicles="3" maxJamLengthInMeters="21.00" jamLengthInVehiclesSum="75" jamLengthInMetersSum="525.05" meanHaltingDuration="171.00" maxHaltingDuration="172.00" haltingDurationSum="513.00" meanIntervalHaltingDuration="25.00" maxIntervalHaltingDuration="25.00" intervalHaltingDurationSum="75.00" startedHalts="0.00" meanVehicleNumber="3.00" maxVehicleNumber="3" />
   <interval begin="500.00" end="525.00" id="N42lane0," nSamples="75" meanSpeed="0.00" meanOccupancy="59.98" maxOccupancy="59.98" meanMaxJamLengthInVehicles="3.00" meanMaxJamLengthInMeters="21.00" maxJamLengthInVehicles="3" maxJamLengthInMeters="21.00" jamLengthInVehiclesSum="75" jamLengthInMetersSum="525.05" meanHaltingDuration="196.00" maxHaltingDuration="197.00" haltingDurationSum="588.00" meanIntervalHaltingDuration="25.00" maxIntervalHaltingDuration="25.00" intervalHaltingDurationSum="75.00" startedHalts="0.00" meanVehicleNumber="3.00" maxVehicleNumber="3" />
   <interval begin="525.00" end="550.00" id="N42lane0," nSamples="75" meanSpeed="0.00" meanOccupancy="59.98" maxOccupancy="59.98" meanMaxJamLengthInVehicles="3.00" meanMaxJamLengthInMeters="21.00" maxJamLengthInVehicles="3" maxJamLengthInMeters="21.00" jamLengthInVehiclesSum="75" jamLengthInMetersSum="525.05" meanHaltingDuration="221.00" maxHaltingDuration="222.00" haltingDurationSum="663.00" meanIntervalHaltingDuration="25.00" maxIntervalHaltingDuration="25.00" intervalHaltingDurationSum="75.00" startedHalts="0.00" meanVehicleNumber="3.00" maxVehicleNumber="3" />
   <interval begin="550.00" end="575.00" id="N42lane0," nSamples="75" meanSpeed="0.00" meanOccupancy="59.98" maxOccupancy="59.98" meanMaxJamLengthInVehicles="3.00" meanMaxJamLengthInMeters="21.00" maxJamLengthInVehicles="3" maxJamLengthInMeters="21.00" jamLengthInVehiclesSum="75" jamLengthInMetersSum="525.05" meanHaltingDuration="246.00" maxHaltingDuration="247.00" haltingDurationSum="738.00" meanIntervalHaltingDuration="25.00" maxIntervalHaltingDuration="25.00" intervalHaltingDurationSum="75.00" startedHalts="0.00" meanVehicleNumber="3.00" maxVehicleNumber="3" />
   <interval begin="575.00" end="600.00" id="N42lane0," nSamples="75" meanSpeed="0.00" meanOccupancy="59.98" maxOccupancy="59.98" meanMaxJamLengthInVehicles="3.00" meanMaxJamLengthInMeters="21.00" maxJamLengthInVehicles="3" maxJamLengthInMeters="21.00" jamLengthInVehiclesSum="75" jamLengthInMetersSum="525.05" meanHaltingDuration="271.00" maxHaltingDuration="272.00" haltingDurationSum="813.00" meanIntervalHaltingDuration="25.00" maxIntervalHaltingDuration="25.00" intervalHaltingDurationSum="75.00" startedHalts="0.00" meanVehicleNumber="3.00" maxVehicleNumber="3" />
   <interval begin="600.00" end="625.00" id="N42lane0," nSamples="75" meanSpeed="0.00" meanOccupancy="59.98" maxOccupancy="59.98" meanMaxJamLengthInVehicles="3.00" meanMaxJamLengthInMeters="21.00" maxJamLengthInVehicles="3" maxJamLengthInMeters="21.00" jamLengthInVehiclesSum="75" jamLengthInMetersSum="525.05" meanHaltingDuration="296.00" maxHaltingDuration="297.00" haltingDurationSum="888.00" meanIntervalHaltingDuration="25.00" maxIntervalHaltingDuration="25.00" intervalHaltingDurationSum="75.00" startedHalts="0.00" meanVehicleNumber="3.00" maxVehicleNumber="3" />
   <interval begin="625.00" end="650.00" id="N42lane0," nSamples="69" meanSpeed="0.22" meanOccupancy="58.78" maxOccupancy="59.99" meanMaxJamLengthInVehicles="2.48" meanMaxJamLengthInMeters="17.40" maxJamLengthInVehicles="3" maxJamLengthInMeters="21.00" jamLengthInVehiclesSum="62" jamLengthInMetersSum="435.04" meanHaltingDuration="130.40" maxHaltingDuration="302.00" haltingDurationSum="652.00" meanIntervalHaltingDuration="12.20" maxIntervalHaltingDuration="17.00" intervalHaltingDurationSum="61.00" startedHalts="3.00" meanVehicleNumber="2.76" maxVehicleNumber="3" />
   <interval begin="650.00" end="675.00" id="N42lane0," nSamples="75" meanSpeed="0.00" meanOccupancy="59.98" maxOccupancy="59.98" meanMaxJamLengthInVehicles="3.00" meanMaxJamLengthInMeters="21.00" maxJamLengthInVehicles="3" maxJamLengthInMeters="21.00" jamLengthInVehiclesSum="75" jamLengthInMetersSum="525.05" meanHaltingDuration="41.00" maxHaltingDuration="42.00" haltingDurationSum="123.00" meanIntervalHaltingDuration="25.00" maxIntervalHaltingDuration="25.00" intervalHaltingDurationSum="75.00" startedHalts="0.00" meanVehicleNumber="3.00" maxVehicleNumber="3" />
   <interval begin="675.00" end="700.00" id="N42lane0," nSamples="75" meanSpeed="0.00" meanOccupancy="59.98" maxOccupancy="59.98" meanMaxJamLengthInVehicles="3.00" meanMaxJamLengthInMeters="21.00" maxJamLengthInVehicles="3" maxJamLengthInMeters="21.00" jamLengthInVehiclesSum="75" jamLengthInMetersSum="525.05" meanHaltingDuration="66.00" maxHaltingDuration="67.00" haltingDurationSum="198.00" meanIntervalHaltingDuration="25.00" maxIntervalHaltingDuration="25.00" intervalHaltingDurationSum="75.00" startedHalts="0.00" meanVehicleNumber="3.00" maxVehicleNumber="3" />
   <interval begin="700.00" end="725.00" id="N42lane0," nSamples="75" meanSpeed="0.00" meanOccupancy="59.98" maxOccupancy="59.98" meanMaxJamLengthInVehicles="3.00" meanMaxJamLengthInMeters="21.00" maxJamLengthInVehicles="3" maxJamLengthInMeters="21.00" jamLengthInVehiclesSum="75" jamLengthInMetersSum="525.05" meanHaltingDuration="91.00" maxHaltingDuration="92.00" haltingDurationSum="273.00" meanIntervalHaltingDuration="25.00" maxIntervalHaltingDuration="25.00" intervalHaltingDurationSum="75.00" startedHalts="0.00" meanVehicleNumber="3.00" maxVehicleNumber="3" />
   <interval begin="725.00" end="750.00" id="N42lane0," nSamples="75" meanSpeed="0.00" meanOccupancy="59.98" maxOccupancy="59.98" meanMaxJamLengthInVehicles="3.00" meanMaxJamLengthInMeters="21.00" maxJamLengthInVehicles="3" maxJamLengthInMeters="21.00" jamLengthInVehiclesSum="75" jamLengthInMetersSum="525.05" meanHaltingDuration="116.00" maxHaltingDuration="117.00" haltingDurationSum="348.00" meanIntervalHaltingDuration="25.00" maxIntervalHaltingDuration="25.00" intervalHaltingDurationSum="75.00" startedHalts="0.00" meanVehicleNumber="3.00" maxVehicleNumber="3" />
   <interval begin="750.00" end="775.00" id="N42lane0," nSamples="75" meanSpeed="0.00" meanOccupancy="59.98" maxOccupancy="59.98" meanMaxJamLengthInVehicles="3.00" meanMaxJamLengthInMeters="21.00" maxJamLengthInVehicles="3" maxJamLengthInMeters="21.00" jamLengthInVehiclesSum="75" jamLengthInMetersSum="525.05" meanHaltingDuration="141.00" maxHaltingDuration="142.00" haltingDurationSum="423.00" meanIntervalHaltingDuration="25.00" maxIntervalHaltingDuration="25.00" intervalHaltingDurationSum="75.00" startedHalts="0.00" meanVehicleNumber="3.00" maxVehicleNumber="3" />
   <interval begin="775.00" end="800.00" id="N42lane0," nSamples="75" meanSpeed="0.00" meanOccupancy="59.98" maxOccupancy="59.98" meanMaxJamLengthInVehicles="3.00" meanMaxJamLengthInMeters="21.00" maxJamLengthInVehicles="3" maxJamLengthInMeters="21.00" jamLengthInVehiclesSum="75" jamLengthInMetersSum="525.05" meanHaltingDuration="166.00" maxHaltingDuration="167.00" haltingDurationSum="498.00" meanIntervalHaltingDuration="25.00" maxIntervalHaltingDuration="25.00" intervalHaltingDurationSum="75.00" startedHalts="0.00" meanVehicleNumber="3.00" maxVehicleNumber="3" />
   <interval begin="800.00" end="825.00" id="N42lane0," nSamples="75" meanSpeed="0.00" meanOccupancy="59.98" maxOccupancy="59.98" meanMaxJamLengthInVehicles="3.00" meanMaxJamLengthInMeters="21.00" maxJamLengthInVehicles="3" maxJamLengthInMeters="21.00" jamLengthInVehiclesSum="75" jamLengthInMetersSum="525.05" meanHaltingDuration="191.00" maxHaltingDuration="192.00" haltingDurationSum="573.00" meanIntervalHaltingDuration="25.00" maxIntervalHaltingDuration="25.00" intervalHaltingDurationSum="75.00" startedHalts="0.00" meanVehicleNumber="3.00" maxVehicleNumber="3" />
   <interval begin="825.00" end="850.00" id="N42lane0," nSamples="75" meanSpeed="0.00" meanOccupancy="59.98" maxOccupancy="59.98" meanMaxJamLengthInVehicles="3.00" meanMaxJamLengthInMeters="21.00" maxJamLengthInVehicles="3" maxJamLengthInMeters="21.00" jamLengthInVehiclesSum="75" jamLengthInMetersSum="525.05" meanHaltingDuration="216.00" maxHaltingDuration="217.00" haltingDurationSum="648.00" meanIntervalHaltingDuration="25.00" maxIntervalHaltingDuration="25.00" intervalHaltingDurationSum="75.00" startedHalts="0.00" meanVehicleNumber="3.00" maxVehicleNumber="3" />
   <interval begin="850.00" end="875.00" id="N42lane0," nSamples="75" meanSpeed="0.00" meanOccupancy="59.98" maxOccupancy="59.98" meanMaxJamLengthInVehicles="3.00" meanMaxJamLengthInMeters="21.00" maxJamLengthInVehicles="3" maxJamLengthInMeters="21.00" jamLengthInVehiclesSum="75" jamLengthInMetersSum="525.05" meanHaltingDuration="241.00" maxHaltingDuration="242.00" haltingDurationSum="723.00" meanIntervalHaltingDuration="25.00" maxIntervalHaltingDuration="25.00" intervalHaltingDurationSum="75.00" startedHalts="0.00" meanVehicleNumber="3.00" maxVehicleNumber="3" />
   <interval begin="875.00" end="900.00" id="N42lane0," nSamples="75" meanSpeed="0.00" meanOccupancy="59.98" maxOccupancy="59.98" meanMaxJamLengthInVehicles="3.00" meanMaxJamLengthInMeters="21.00" maxJamLengthInVehicles="3" maxJamLengthInMeters="21.00" jamLengthInVehiclesSum="75" jamLengthInMetersSum="525.05" meanHaltingDuration="266.00" maxHaltingDuration="267.00" haltingDurationSum="798.00" meanIntervalHaltingDuration="25.00" maxIntervalHaltingDuration="25.00" intervalHaltingDurationSum="75.00" startedHalts="0.00" meanVehicleNumber="3.00" maxVehicleNumber="3" />
   <interval begin="900.00" end="925.00" id="N42lane0," nSamples="75" meanSpeed="0.00" meanOccupancy="59.98" maxOccupancy="59.98" meanMaxJamLengthInVehicles="3.00" meanMaxJamLengthInMeters="21.00" maxJamLengthInVehicles="3" maxJamLengthInMeters="21.00" jamLengthInVehiclesSum="75" jamLengthInMetersSum="525.05" meanHaltingDuration="291.00" maxHaltingDuration="292.00" haltingDurationSum="873.00" meanIntervalHaltingDuration="25.00" maxIntervalHaltingDuration="25.00" intervalHaltingDurationSum="75.00" startedHalts="0.00" meanVehicleNumber="3.00" maxVehicleNumber="3" />
   <interval begin="925.00" end="950.00" id="N42lane0," nSamples="69" meanSpeed="0.22" meanOccupancy="58.78" maxOccupancy="59.99" meanMaxJamLengthInVehicles="2.48" meanMaxJamLengthInMeters="17.40" maxJamLengthInVehicles="3" maxJamLengthInMeters="21.00" jamLengthInVehiclesSum="62" jamLengthInMetersSum="435.04" meanHaltingDuration="127.40" maxHaltingDuration="302.00" haltingDurationSum="637.00" meanIntervalHaltingDuration="11.20" maxIntervalHaltingDuration="12.00" intervalHaltingDurationSum="56.00" startedHalts="3.00" meanVehicleNumber="2.76" maxVehicleNumber="3" />
   <interval begin="950.00" end="975.00" id="N42lane0," nSamples="75" meanSpeed="0.00" meanOccupancy="59.98" maxOccupancy="59.98" meanMaxJamLengthInVehicles="3.00" meanMaxJamLengthInMeters="21.00" maxJamLengthInVehicles="3" maxJamLengthInMeters="21.00" jamLengthInVehiclesSum="75" jamLengthInMetersSum="525.05" meanHaltingDuration="36.00" maxHaltingDuration="37.00" haltingDurationSum="108.00" meanIntervalHaltingDuration="25.00" maxIntervalHaltingDuration="25.00" intervalHaltingDurationSum="75.00" startedHalts="0.00" meanVehicleNumber="3.00" maxVehicleNumber="3" />
   <interval begin="975.00" end="1000.00" id="N42lane0," nSamples="75" meanSpeed="0.00" meanOccupancy="59.98" maxOccupancy="59.98" meanMaxJamLengthInVehicles="3.00" meanMaxJamLengthInMeters="21.00" maxJamLengthInVehicles="3" maxJamLengthInMeters="21.00" jamLengthInVehiclesSum="75" jamLengthInMetersSum="525.05" meanHaltingDuration="61.00" maxHaltingDuration="62.00" haltingDurationSum="183.00" meanIntervalHaltingDuration="25.00" maxIntervalHaltingDuration="25.00" intervalHaltingDurationSum="75.00" startedHalts="0.00" meanVehicleNumber="3.00" maxVehicleNumber="3" />
   <interval begin="1000.00" end="1001.00" id="N42lane0," nSamples="3" meanSpeed="0.00" meanOccupancy="59.98" maxOccupancy="59.98" meanMaxJamLengthInVehicles="3.00" meanMaxJamLengthInMeters="21.00" maxJamLengthInVehicles="3" maxJamLengthInMeters="21.00" jamLengthInVehiclesSum="3" jamLengthInMetersSum="21.00" meanHaltingDuration="62.00" maxHaltingDuration="63.00" haltingDurationSum="186.00" meanIntervalHaltingDuration="1.00" maxIntervalHaltingDuration="1.00" intervalHaltingDurationSum="3.00" startedHalts="0.00" meanVehicleNumber="3.00" maxVehicleNumber="3" />
</detector>
